/*--------------------------------*- C++ -*----------------------------------*\
  =========                 |
  \\      /  F ield         | OpenFOAM: The Open Source CFD Toolbox
   \\    /   O peration     | Website:  https://openfoam.org
    \\  /    A nd           | Version:  9
     \\/     M anipulation  |
\*---------------------------------------------------------------------------*/
FoamFile
{
    format      ascii;
    class       volScalarField;
    location    "900";
    object      deltaField;
}
// * * * * * * * * * * * * * * * * * * * * * * * * * * * * * * * * * * * * * //

dimensions      [0 0 0 0 0 0 0];

internalField   nonuniform List<scalar> 
480
(
0.0816305
0.0824529
0.0842641
0.086539
0.088965
0.0913906
0.0937431
0.0959842
0.0980914
0.100051
0.101855
0.103499
0.10498
0.106299
0.107459
0.108462
0.109315
0.110021
0.110588
0.111023
0.11133
0.111518
0.111593
0.111562
0.11143
0.111206
0.110894
0.110502
0.110034
0.109497
0.108897
0.108238
0.107526
0.106765
0.105961
0.105118
0.104241
0.103332
0.102397
0.101438
0.10046
0.0994654
0.0984571
0.0974381
0.0964111
0.0953781
0.0943424
0.0933057
0.0922699
0.091237
0.0902086
0.0891865
0.0881719
0.0871665
0.0861714
0.0851879
0.0842171
0.0832607
0.0823232
0.0814584
0.081924
0.0828464
0.0847324
0.0870567
0.0895171
0.0919687
0.0943414
0.096598
0.0987169
0.100685
0.102494
0.104139
0.105619
0.106935
0.108089
0.109084
0.109927
0.110623
0.111178
0.111598
0.111891
0.112063
0.112122
0.112074
0.111926
0.111684
0.111355
0.110945
0.11046
0.109906
0.109288
0.108613
0.107884
0.107108
0.106289
0.105431
0.104539
0.103617
0.102668
0.101697
0.100707
0.0997003
0.0986811
0.0976518
0.096615
0.0955728
0.0945283
0.0934833
0.0924398
0.0913995
0.0903643
0.0893356
0.088315
0.0873038
0.0863034
0.0853148
0.0843393
0.0833784
0.0824368
0.0815682
0.0825202
0.0836463
0.0856817
0.0881035
0.0906322
0.093135
0.0955472
0.0978343
0.0999758
0.101959
0.103777
0.105425
0.106902
0.10821
0.109352
0.110331
0.111154
0.111826
0.112355
0.112747
0.11301
0.11315
0.113176
0.113094
0.112911
0.112634
0.112269
0.111824
0.111303
0.110714
0.110062
0.109353
0.108592
0.107784
0.106934
0.106046
0.105126
0.104176
0.103201
0.102205
0.101191
0.100162
0.099121
0.0980713
0.0970151
0.0959546
0.0948929
0.0938317
0.0927728
0.0917182
0.0906694
0.089628
0.0885955
0.0875731
0.0865621
0.0855637
0.084579
0.0836094
0.0826595
0.0817835
0.0833611
0.0847758
0.0870151
0.0895686
0.092189
0.0947605
0.0972257
0.0995533
0.101724
0.103727
0.105556
0.107206
0.108677
0.109972
0.111095
0.112049
0.112841
0.11348
0.11397
0.114321
0.11454
0.114634
0.114612
0.114481
0.114249
0.113922
0.113507
0.113012
0.112442
0.111805
0.111105
0.110349
0.109543
0.108691
0.107799
0.106871
0.105911
0.104924
0.103914
0.102883
0.101837
0.100777
0.0997076
0.0986304
0.0975483
0.0964633
0.0953786
0.0942956
0.0932163
0.0921424
0.0910756
0.0900173
0.0889689
0.0879316
0.0869067
0.0858952
0.0848982
0.0839171
0.0829564
0.0820704
0.0844146
0.0861936
0.0886764
0.091385
0.0941134
0.0967657
0.0992928
0.101667
0.103872
0.105896
0.107734
0.109383
0.110844
0.11212
0.113214
0.114134
0.114886
0.115478
0.115919
0.116216
0.116378
0.116413
0.11633
0.116137
0.115842
0.115452
0.114975
0.114418
0.113787
0.11309
0.112332
0.11152
0.110659
0.109754
0.108811
0.107834
0.106828
0.105797
0.104744
0.103674
0.102589
0.101494
0.10039
0.0992804
0.0981679
0.0970544
0.0959428
0.0948346
0.0937315
0.0926354
0.0915476
0.0904697
0.0894029
0.0883484
0.0873074
0.0862808
0.0852696
0.0842752
0.0833019
0.0824044
0.085656
0.0878678
0.0906199
0.0934981
0.0963447
0.0990853
0.10168
0.104104
0.106343
0.108387
0.110231
0.111874
0.113318
0.114565
0.115623
0.116497
0.117197
0.117731
0.118109
0.118339
0.118431
0.118394
0.118238
0.117971
0.117601
0.117138
0.116588
0.115959
0.115258
0.114493
0.113669
0.112793
0.11187
0.110906
0.109907
0.108876
0.107819
0.106738
0.10564
0.104526
0.1034
0.102265
0.101124
0.0999801
0.098835
0.0976907
0.0965502
0.0954149
0.0942864
0.0931664
0.0920563
0.0909574
0.0898709
0.088798
0.0877398
0.086697
0.0856708
0.0846622
0.0836755
0.0827657
0.0870625
0.0897693
0.0928035
0.0958582
0.0988284
0.101661
0.104325
0.1068
0.109071
0.111131
0.112976
0.114605
0.116021
0.11723
0.118238
0.119054
0.119688
0.120151
0.120452
0.120602
0.120612
0.120491
0.12025
0.119899
0.119445
0.118899
0.118268
0.11756
0.116783
0.115943
0.115048
0.114104
0.113116
0.11209
0.111031
0.109944
0.108833
0.107703
0.106556
0.105397
0.104229
0.103054
0.101876
0.100696
0.0995178
0.0983423
0.0971726
0.0960098
0.0948556
0.0937114
0.0925787
0.0914586
0.0903523
0.0892608
0.0881851
0.0871261
0.0860846
0.0850616
0.0840614
0.0831397
0.0886093
0.0918684
0.0951858
0.098419
0.101516
0.104443
0.107177
0.1097
0.112
0.11407
0.115906
0.117511
0.118888
0.120044
0.120989
0.121733
0.122287
0.122664
0.122875
0.122932
0.122847
0.122632
0.122296
0.121851
0.121307
0.120671
0.119954
0.119163
0.118306
0.11739
0.116422
0.115408
0.114355
0.113266
0.112148
0.111006
0.109842
0.108662
0.107468
0.106265
0.105055
0.103842
0.102627
0.101413
0.100202
0.0989964
0.0977983
0.0966088
0.0954296
0.094262
0.0931072
0.0919665
0.0908409
0.0897312
0.0886385
0.0875636
0.0865071
0.08547
0.0844567
0.0835237
)
;

boundaryField
{
    inlet
    {
        type            zeroGradient;
    }
    outlet
    {
        type            zeroGradient;
    }
    axis
    {
        type            empty;
    }
    negZside
    {
        type            wedge;
    }
    posZside
    {
        type            wedge;
    }
    tubeWall
    {
        type            zeroGradient;
    }
}


// ************************************************************************* //
