/*--------------------------------*- C++ -*----------------------------------*\
  =========                 |
  \\      /  F ield         | OpenFOAM: The Open Source CFD Toolbox
   \\    /   O peration     | Website:  https://openfoam.org
    \\  /    A nd           | Version:  9
     \\/     M anipulation  |
\*---------------------------------------------------------------------------*/
FoamFile
{
    format      ascii;
    class       volScalarField;
    location    "900";
    object      Yceriam;
}
// * * * * * * * * * * * * * * * * * * * * * * * * * * * * * * * * * * * * * //

dimensions      [1 -3 0 0 0 0 0];

internalField   nonuniform List<scalar> 
480
(
1193.51
1192.44
1190.09
1187.13
1183.98
1180.82
1177.77
1174.85
1172.11
1169.57
1167.22
1165.09
1163.16
1161.45
1159.94
1158.64
1157.53
1156.61
1155.87
1155.31
1154.91
1154.66
1154.57
1154.61
1154.78
1155.07
1155.48
1155.99
1156.59
1157.29
1158.07
1158.93
1159.85
1160.84
1161.89
1162.98
1164.12
1165.3
1166.52
1167.77
1169.04
1170.33
1171.64
1172.96
1174.3
1175.64
1176.99
1178.33
1179.68
1181.02
1182.36
1183.69
1185.01
1186.31
1187.61
1188.89
1190.15
1191.39
1192.61
1193.73
1193.13
1191.93
1189.48
1186.46
1183.26
1180.07
1176.99
1174.06
1171.3
1168.74
1166.39
1164.26
1162.33
1160.62
1159.12
1157.83
1156.73
1155.83
1155.11
1154.56
1154.18
1153.96
1153.88
1153.94
1154.13
1154.45
1154.88
1155.41
1156.04
1156.76
1157.56
1158.44
1159.39
1160.4
1161.46
1162.58
1163.74
1164.93
1166.17
1167.43
1168.72
1170.02
1171.35
1172.69
1174.03
1175.39
1176.75
1178.1
1179.46
1180.81
1182.16
1183.49
1184.82
1186.14
1187.44
1188.72
1189.99
1191.24
1192.46
1193.59
1192.35
1190.89
1188.24
1185.1
1181.81
1178.56
1175.42
1172.45
1169.67
1167.09
1164.73
1162.58
1160.66
1158.96
1157.48
1156.21
1155.14
1154.26
1153.58
1153.07
1152.73
1152.54
1152.51
1152.62
1152.86
1153.22
1153.69
1154.27
1154.94
1155.71
1156.56
1157.48
1158.47
1159.52
1160.62
1161.78
1162.97
1164.21
1165.47
1166.77
1168.09
1169.42
1170.78
1172.14
1173.51
1174.89
1176.27
1177.65
1179.03
1180.4
1181.76
1183.11
1184.46
1185.79
1187.1
1188.4
1189.68
1190.94
1192.17
1193.31
1191.26
1189.42
1186.51
1183.19
1179.79
1176.44
1173.24
1170.21
1167.39
1164.79
1162.41
1160.27
1158.36
1156.67
1155.22
1153.98
1152.94
1152.12
1151.48
1151.02
1150.74
1150.61
1150.64
1150.81
1151.12
1151.54
1152.08
1152.72
1153.46
1154.29
1155.2
1156.18
1157.23
1158.34
1159.5
1160.71
1161.95
1163.23
1164.55
1165.89
1167.25
1168.62
1170.01
1171.41
1172.82
1174.23
1175.64
1177.05
1178.45
1179.85
1181.23
1182.61
1183.97
1185.32
1186.65
1187.97
1189.26
1190.54
1191.79
1192.94
1189.89
1187.58
1184.35
1180.83
1177.28
1173.84
1170.55
1167.47
1164.6
1161.97
1159.58
1157.44
1155.54
1153.88
1152.46
1151.27
1150.29
1149.52
1148.95
1148.56
1148.35
1148.3
1148.41
1148.66
1149.05
1149.55
1150.17
1150.9
1151.72
1152.62
1153.61
1154.66
1155.78
1156.96
1158.18
1159.45
1160.76
1162.1
1163.47
1164.86
1166.27
1167.69
1169.13
1170.57
1172.02
1173.46
1174.91
1176.35
1177.78
1179.21
1180.62
1182.02
1183.41
1184.78
1186.13
1187.46
1188.78
1190.07
1191.34
1192.5
1188.28
1185.4
1181.83
1178.08
1174.39
1170.82
1167.45
1164.3
1161.39
1158.73
1156.34
1154.2
1152.33
1150.7
1149.33
1148.19
1147.28
1146.59
1146.1
1145.8
1145.68
1145.73
1145.93
1146.28
1146.76
1147.36
1148.08
1148.89
1149.8
1150.8
1151.87
1153.01
1154.21
1155.46
1156.76
1158.1
1159.47
1160.88
1162.3
1163.75
1165.22
1166.69
1168.17
1169.66
1171.15
1172.64
1174.12
1175.59
1177.06
1178.52
1179.96
1181.39
1182.8
1184.19
1185.57
1186.92
1188.26
1189.57
1190.85
1192.03
1186.45
1182.93
1178.99
1175.02
1171.16
1167.48
1164.01
1160.8
1157.84
1155.17
1152.77
1150.65
1148.81
1147.24
1145.93
1144.87
1144.05
1143.45
1143.05
1142.86
1142.85
1143
1143.32
1143.77
1144.36
1145.07
1145.89
1146.81
1147.82
1148.91
1150.08
1151.3
1152.59
1153.92
1155.3
1156.71
1158.15
1159.62
1161.11
1162.62
1164.14
1165.67
1167.2
1168.73
1170.26
1171.79
1173.31
1174.82
1176.32
1177.81
1179.28
1180.74
1182.17
1183.59
1184.99
1186.37
1187.72
1189.05
1190.35
1191.55
1184.44
1180.2
1175.89
1171.69
1167.66
1163.86
1160.31
1157.03
1154.04
1151.35
1148.96
1146.88
1145.09
1143.58
1142.36
1141.39
1140.67
1140.18
1139.91
1139.83
1139.94
1140.22
1140.66
1141.24
1141.94
1142.77
1143.7
1144.73
1145.84
1147.03
1148.29
1149.61
1150.98
1152.39
1153.85
1155.33
1156.84
1158.38
1159.93
1161.49
1163.06
1164.64
1166.22
1167.8
1169.37
1170.94
1172.5
1174.04
1175.57
1177.09
1178.59
1180.08
1181.54
1182.98
1184.4
1185.8
1187.17
1188.52
1189.84
1191.05
)
;

boundaryField
{
    inlet
    {
        type            calculated;
        value           uniform 0;
    }
    outlet
    {
        type            calculated;
        value           uniform 0;
    }
    axis
    {
        type            empty;
    }
    negZside
    {
        type            wedge;
    }
    posZside
    {
        type            wedge;
    }
    tubeWall
    {
        type            calculated;
        value           uniform 0;
    }
}


// ************************************************************************* //
