/*--------------------------------*- C++ -*----------------------------------*\
  =========                 |
  \\      /  F ield         | OpenFOAM: The Open Source CFD Toolbox
   \\    /   O peration     | Website:  https://openfoam.org
    \\  /    A nd           | Version:  9
     \\/     M anipulation  |
\*---------------------------------------------------------------------------*/
FoamFile
{
    format      ascii;
    class       volScalarField;
    location    "900";
    object      Ycered;
}
// * * * * * * * * * * * * * * * * * * * * * * * * * * * * * * * * * * * * * //

dimensions      [0 0 0 0 0 0 0];

internalField   nonuniform List<scalar> 
480
(
0.0746037
0.0753611
0.0770296
0.0791261
0.0813627
0.0836001
0.085771
0.08784
0.0897862
0.0915968
0.0932642
0.0947837
0.0961535
0.097374
0.098447
0.0993756
0.100165
0.100819
0.101344
0.101746
0.102031
0.102205
0.102274
0.102245
0.102124
0.101916
0.101627
0.101264
0.100831
0.100334
0.0997777
0.0991678
0.0985088
0.0978053
0.0970615
0.0962817
0.0954699
0.0946298
0.093765
0.092879
0.0919748
0.0910555
0.0901239
0.0891827
0.0882342
0.0872804
0.0863242
0.0853673
0.0844114
0.0834584
0.0825097
0.081567
0.0806315
0.0797045
0.0787872
0.0778808
0.0769863
0.0761051
0.0752416
0.0744452
0.074874
0.0757236
0.0774611
0.0796033
0.081872
0.0841335
0.0863233
0.0884068
0.090364
0.0921824
0.0938543
0.0953757
0.0967449
0.0979623
0.0990301
0.0999516
0.100732
0.101376
0.10189
0.102279
0.10255
0.10271
0.102764
0.10272
0.102583
0.102359
0.102054
0.101674
0.101225
0.100712
0.10014
0.0995149
0.0988407
0.0981224
0.0973643
0.0965707
0.0957456
0.0948927
0.0940157
0.0931179
0.0922026
0.0912726
0.0903309
0.0893801
0.0884225
0.0874601
0.0864958
0.0855312
0.0845682
0.0836083
0.0826533
0.0817045
0.0807634
0.0798311
0.0789089
0.0779978
0.0770989
0.0762136
0.0753462
0.0745463
0.0754231
0.0764604
0.0783359
0.0805684
0.0829005
0.0852098
0.0874365
0.0895487
0.0915272
0.0933603
0.0950409
0.0965653
0.0979322
0.0991426
0.100199
0.101106
0.101868
0.10249
0.10298
0.103343
0.103587
0.103717
0.10374
0.103664
0.103495
0.103238
0.1029
0.102488
0.102006
0.101461
0.100857
0.1002
0.0994958
0.0987479
0.0979613
0.0971401
0.0962884
0.09541
0.0945086
0.0935876
0.0926501
0.0916991
0.0907374
0.0897676
0.088792
0.0878127
0.0868324
0.0858528
0.0848755
0.0839023
0.0829347
0.0819742
0.081022
0.0800793
0.0791474
0.0782272
0.0773197
0.0764264
0.0755514
0.0747446
0.0761976
0.0775011
0.0795649
0.0819194
0.0843368
0.0867102
0.0889865
0.0911368
0.0931433
0.0949952
0.0966861
0.0982127
0.0995747
0.100774
0.101813
0.102696
0.103431
0.104022
0.104476
0.104801
0.105004
0.105092
0.105071
0.10495
0.104734
0.104431
0.104047
0.103588
0.103061
0.10247
0.101822
0.101122
0.100376
0.0995876
0.0987617
0.0979027
0.0970149
0.0961019
0.0951674
0.0942148
0.0932474
0.0922679
0.0912793
0.090284
0.0892844
0.0882824
0.0872807
0.086281
0.0852848
0.0842938
0.0833095
0.0823332
0.0813663
0.0804099
0.079465
0.0785327
0.0776139
0.0767099
0.0758248
0.0750088
0.0771682
0.0788077
0.0810966
0.0835949
0.0861128
0.0885616
0.0908961
0.0930905
0.0951287
0.097001
0.0987015
0.100228
0.101581
0.102762
0.103776
0.104628
0.105325
0.105874
0.106282
0.106557
0.106707
0.10674
0.106663
0.106484
0.106211
0.105849
0.105407
0.104891
0.104307
0.103661
0.102958
0.102206
0.101409
0.100572
0.0996985
0.0987944
0.0978633
0.0969091
0.0959354
0.0949456
0.0939428
0.0929299
0.0919097
0.0908846
0.0898568
0.0888283
0.0878017
0.0867785
0.0857603
0.0847487
0.083745
0.0827506
0.0817666
0.0807942
0.0798343
0.078888
0.0779561
0.0770398
0.0761431
0.0753164
0.0783122
0.080351
0.0828891
0.0855449
0.0881729
0.0907044
0.0931021
0.0953436
0.0974146
0.0993062
0.101013
0.102535
0.103872
0.105028
0.106008
0.106818
0.107467
0.107962
0.108312
0.108525
0.108611
0.108577
0.108432
0.108184
0.107842
0.107412
0.106902
0.106319
0.10567
0.10496
0.104197
0.103385
0.102531
0.101638
0.100713
0.0997587
0.09878
0.0977805
0.0967638
0.0957333
0.0946921
0.0936429
0.0925885
0.0915311
0.0904731
0.089416
0.0883627
0.0873143
0.0862725
0.0852387
0.0842143
0.0832004
0.0821982
0.0812088
0.080233
0.0792717
0.0783258
0.0773963
0.0764873
0.0756492
0.0796086
0.0821045
0.0849039
0.0877236
0.090467
0.0930851
0.0955483
0.0978374
0.0999395
0.101847
0.103555
0.105065
0.106377
0.107497
0.108432
0.109189
0.109777
0.110206
0.110486
0.110625
0.110634
0.110522
0.110298
0.109972
0.109552
0.109045
0.10846
0.107803
0.107083
0.106305
0.105475
0.1046
0.103685
0.102735
0.101754
0.100747
0.0997191
0.0986727
0.0976117
0.0965394
0.0954587
0.0943724
0.0932831
0.0921929
0.091104
0.0900179
0.0889374
0.0878636
0.0867979
0.0857417
0.0846963
0.0836628
0.0826422
0.0816355
0.0806436
0.0796672
0.0787072
0.0777644
0.0768428
0.0759937
0.0810348
0.084041
0.0871028
0.0900887
0.0929503
0.095657
0.0981862
0.100521
0.102651
0.104569
0.106271
0.107758
0.109035
0.110107
0.110984
0.111674
0.112188
0.112538
0.112733
0.112787
0.112708
0.112508
0.112197
0.111784
0.111278
0.110689
0.110024
0.10929
0.108495
0.107646
0.106748
0.105809
0.104833
0.103824
0.102789
0.10173
0.100653
0.0995602
0.0984557
0.0973425
0.0962233
0.0951008
0.0939774
0.0928553
0.0917365
0.0906222
0.0895154
0.0884168
0.0873279
0.0862499
0.0851841
0.0841315
0.0830929
0.0820694
0.0810617
0.0800705
0.0790966
0.0781408
0.077207
0.0763475
)
;

boundaryField
{
    inlet
    {
        type            zeroGradient;
    }
    outlet
    {
        type            zeroGradient;
    }
    axis
    {
        type            empty;
    }
    negZside
    {
        type            wedge;
    }
    posZside
    {
        type            wedge;
    }
    tubeWall
    {
        type            zeroGradient;
    }
}


// ************************************************************************* //
