/*--------------------------------*- C++ -*----------------------------------*\
  =========                 |
  \\      /  F ield         | OpenFOAM: The Open Source CFD Toolbox
   \\    /   O peration     | Website:  https://openfoam.org
    \\  /    A nd           | Version:  9
     \\/     M anipulation  |
\*---------------------------------------------------------------------------*/
FoamFile
{
    format      ascii;
    class       volScalarField;
    location    "900";
    object      Yceria;
}
// * * * * * * * * * * * * * * * * * * * * * * * * * * * * * * * * * * * * * //

dimensions      [0 0 0 0 0 0 0];

internalField   nonuniform List<scalar> 
480
(
0.925396
0.924639
0.92297
0.920874
0.918637
0.9164
0.914229
0.91216
0.910214
0.908403
0.906736
0.905216
0.903846
0.902626
0.901553
0.900624
0.899835
0.899181
0.898656
0.898254
0.897969
0.897795
0.897726
0.897755
0.897876
0.898084
0.898373
0.898736
0.899169
0.899666
0.900222
0.900832
0.901491
0.902195
0.902939
0.903718
0.90453
0.90537
0.906235
0.907121
0.908025
0.908944
0.909876
0.910817
0.911766
0.91272
0.913676
0.914633
0.915589
0.916542
0.91749
0.918433
0.919369
0.920296
0.921213
0.922119
0.923014
0.923895
0.924758
0.925555
0.925126
0.924276
0.922539
0.920397
0.918128
0.915866
0.913677
0.911593
0.909636
0.907818
0.906146
0.904624
0.903255
0.902038
0.90097
0.900048
0.899268
0.898624
0.89811
0.897721
0.89745
0.89729
0.897236
0.89728
0.897417
0.897641
0.897946
0.898326
0.898775
0.899288
0.89986
0.900485
0.901159
0.901878
0.902636
0.903429
0.904254
0.905107
0.905984
0.906882
0.907797
0.908727
0.909669
0.91062
0.911578
0.91254
0.913504
0.914469
0.915432
0.916392
0.917347
0.918295
0.919237
0.920169
0.921091
0.922002
0.922901
0.923786
0.924654
0.925454
0.924577
0.92354
0.921664
0.919432
0.9171
0.91479
0.912563
0.910451
0.908473
0.90664
0.904959
0.903435
0.902068
0.900857
0.899801
0.898894
0.898132
0.89751
0.89702
0.896657
0.896413
0.896283
0.89626
0.896336
0.896505
0.896762
0.8971
0.897512
0.897994
0.898539
0.899143
0.8998
0.900504
0.901252
0.902039
0.90286
0.903712
0.90459
0.905491
0.906412
0.90735
0.908301
0.909263
0.910232
0.911208
0.912187
0.913168
0.914147
0.915124
0.916098
0.917065
0.918026
0.918978
0.919921
0.920853
0.921773
0.92268
0.923574
0.924449
0.925255
0.923802
0.922499
0.920435
0.918081
0.915663
0.91329
0.911013
0.908863
0.906857
0.905005
0.903314
0.901787
0.900425
0.899226
0.898187
0.897304
0.896569
0.895978
0.895524
0.895199
0.894996
0.894908
0.894929
0.89505
0.895266
0.895569
0.895953
0.896412
0.896939
0.89753
0.898178
0.898878
0.899624
0.900412
0.901238
0.902097
0.902985
0.903898
0.904833
0.905785
0.906753
0.907732
0.908721
0.909716
0.910716
0.911718
0.912719
0.913719
0.914715
0.915706
0.916691
0.917667
0.918634
0.91959
0.920535
0.921467
0.922386
0.92329
0.924175
0.924991
0.922832
0.921192
0.918903
0.916405
0.913887
0.911438
0.909104
0.90691
0.904871
0.902999
0.901298
0.899772
0.898419
0.897238
0.896224
0.895372
0.894675
0.894126
0.893718
0.893443
0.893293
0.89326
0.893337
0.893516
0.893789
0.894151
0.894593
0.895109
0.895693
0.896339
0.897042
0.897794
0.898591
0.899428
0.900302
0.901206
0.902137
0.903091
0.904065
0.905054
0.906057
0.90707
0.90809
0.909115
0.910143
0.911172
0.912198
0.913221
0.91424
0.915251
0.916255
0.917249
0.918233
0.919206
0.920166
0.921112
0.922044
0.92296
0.923857
0.924684
0.921688
0.919649
0.917111
0.914455
0.911827
0.909296
0.906898
0.904656
0.902585
0.900694
0.898987
0.897465
0.896128
0.894972
0.893992
0.893182
0.892533
0.892038
0.891688
0.891475
0.891389
0.891423
0.891568
0.891816
0.892158
0.892588
0.893098
0.893681
0.89433
0.89504
0.895803
0.896615
0.897469
0.898362
0.899287
0.900241
0.90122
0.90222
0.903236
0.904267
0.905308
0.906357
0.907412
0.908469
0.909527
0.910584
0.911637
0.912686
0.913728
0.914761
0.915786
0.9168
0.917802
0.918791
0.919767
0.920728
0.921674
0.922604
0.923513
0.924351
0.920391
0.917895
0.915096
0.912276
0.909533
0.906915
0.904452
0.902163
0.90006
0.898153
0.896445
0.894935
0.893623
0.892503
0.891568
0.890811
0.890223
0.889794
0.889514
0.889375
0.889366
0.889478
0.889702
0.890028
0.890448
0.890955
0.89154
0.892197
0.892917
0.893695
0.894525
0.8954
0.896315
0.897265
0.898246
0.899253
0.900281
0.901327
0.902388
0.903461
0.904541
0.905628
0.906717
0.907807
0.908896
0.909982
0.911063
0.912136
0.913202
0.914258
0.915304
0.916337
0.917358
0.918364
0.919356
0.920333
0.921293
0.922236
0.923157
0.924006
0.918965
0.915959
0.912897
0.909911
0.90705
0.904343
0.901814
0.899479
0.897349
0.895431
0.893729
0.892242
0.890965
0.889893
0.889016
0.888326
0.887812
0.887462
0.887267
0.887213
0.887292
0.887492
0.887803
0.888216
0.888722
0.889311
0.889976
0.89071
0.891505
0.892354
0.893252
0.894191
0.895167
0.896176
0.897211
0.89827
0.899347
0.90044
0.901544
0.902658
0.903777
0.904899
0.906023
0.907145
0.908264
0.909378
0.910485
0.911583
0.912672
0.91375
0.914816
0.915869
0.916907
0.917931
0.918938
0.919929
0.920903
0.921859
0.922793
0.923653
)
;

boundaryField
{
    inlet
    {
        type            zeroGradient;
    }
    outlet
    {
        type            zeroGradient;
    }
    axis
    {
        type            empty;
    }
    negZside
    {
        type            wedge;
    }
    posZside
    {
        type            wedge;
    }
    tubeWall
    {
        type            zeroGradient;
    }
}


// ************************************************************************* //
