/*--------------------------------*- C++ -*----------------------------------*\
  =========                 |
  \\      /  F ield         | OpenFOAM: The Open Source CFD Toolbox
   \\    /   O peration     | Website:  https://openfoam.org
    \\  /    A nd           | Version:  9
     \\/     M anipulation  |
\*---------------------------------------------------------------------------*/
FoamFile
{
    format      ascii;
    class       volScalarField;
    location    "900";
    object      Yceredm;
}
// * * * * * * * * * * * * * * * * * * * * * * * * * * * * * * * * * * * * * //

dimensions      [1 -3 0 0 0 0 0];

internalField   nonuniform List<scalar> 
480
(
96.2183
97.1878
99.3226
102.004
104.864
107.723
110.496
113.137
115.621
117.931
120.057
121.994
123.74
125.295
126.662
127.845
128.85
129.683
130.351
130.863
131.225
131.447
131.535
131.498
131.343
131.079
130.712
130.249
129.698
129.065
128.357
127.58
126.741
125.845
124.897
123.904
122.869
121.798
120.696
119.566
118.413
117.24
116.052
114.851
113.64
112.423
111.202
109.98
108.759
107.542
106.329
105.125
103.929
102.744
101.571
100.411
99.2672
98.1398
97.0348
96.0155
96.5643
97.6516
99.8746
102.614
105.514
108.404
111.201
113.861
116.358
118.678
120.81
122.749
124.494
126.045
127.405
128.578
129.572
130.392
131.046
131.541
131.887
132.09
132.159
132.102
131.928
131.643
131.255
130.771
130.2
129.547
128.818
128.022
127.164
126.249
125.283
124.272
123.22
122.133
121.015
119.871
118.703
117.517
116.316
115.103
113.881
112.652
111.421
110.189
108.959
107.733
106.513
105.3
104.097
102.906
101.726
100.561
99.4112
98.2787
97.1687
96.1449
97.2671
98.5943
100.993
103.848
106.829
109.779
112.622
115.318
117.842
120.18
122.322
124.265
126.006
127.548
128.894
130.048
131.018
131.81
132.433
132.896
133.205
133.371
133.401
133.304
133.088
132.762
132.332
131.807
131.194
130.5
129.731
128.895
127.998
127.045
126.043
124.997
123.912
122.793
121.644
120.47
119.274
118.061
116.834
115.597
114.352
113.102
111.851
110.6
109.352
108.109
106.872
105.645
104.428
103.223
102.031
100.854
99.6938
98.5509
97.4313
96.3987
98.2582
99.9258
102.565
105.575
108.664
111.695
114.6
117.344
119.903
122.264
124.419
126.364
128.098
129.625
130.948
132.072
133.007
133.759
134.337
134.751
135.009
135.12
135.094
134.94
134.665
134.28
133.791
133.207
132.536
131.785
130.96
130.069
129.119
128.115
127.063
125.969
124.838
123.674
122.483
121.269
120.036
118.787
117.526
116.256
114.981
113.702
112.423
111.147
109.875
108.609
107.351
106.104
104.868
103.645
102.437
101.245
100.07
98.9136
97.7811
96.7368
99.4999
101.597
104.523
107.716
110.932
114.058
117.037
119.836
122.434
124.82
126.986
128.93
130.652
132.156
133.446
134.53
135.417
136.115
136.634
136.984
137.175
137.217
137.119
136.891
136.543
136.084
135.521
134.864
134.121
133.299
132.406
131.449
130.434
129.368
128.256
127.105
125.919
124.703
123.462
122.201
120.922
119.631
118.33
117.022
115.711
114.399
113.088
111.782
110.482
109.19
107.908
106.637
105.38
104.137
102.91
101.7
100.508
99.3357
98.1884
97.1305
100.963
103.57
106.814
110.207
113.562
116.792
119.851
122.708
125.347
127.756
129.93
131.867
133.568
135.039
136.285
137.316
138.141
138.77
139.215
139.486
139.595
139.552
139.368
139.053
138.617
138.071
137.422
136.681
135.855
134.953
133.982
132.949
131.862
130.726
129.548
128.333
127.086
125.813
124.518
123.205
121.878
120.54
119.196
117.847
116.497
115.149
113.804
112.466
111.136
109.816
108.507
107.212
105.931
104.667
103.419
102.19
100.981
99.7918
98.6288
97.5564
102.621
105.812
109.388
112.989
116.49
119.829
122.969
125.886
128.563
130.991
133.165
135.085
136.755
138.179
139.367
140.33
141.077
141.622
141.977
142.154
142.166
142.024
141.74
141.325
140.79
140.146
139.403
138.568
137.652
136.663
135.607
134.494
133.33
132.121
130.873
129.592
128.282
126.95
125.598
124.232
122.855
121.47
120.081
118.691
117.302
115.917
114.538
113.167
111.807
110.458
109.123
107.803
106.499
105.212
103.944
102.696
101.468
100.263
99.0837
97.9972
104.444
108.286
112.196
116.007
119.657
123.107
126.33
129.304
132.015
134.455
136.619
138.511
140.134
141.497
142.611
143.487
144.14
144.584
144.833
144.9
144.801
144.547
144.151
143.627
142.985
142.236
141.39
140.458
139.448
138.369
137.227
136.032
134.79
133.508
132.19
130.843
129.471
128.08
126.673
125.255
123.829
122.399
120.967
119.536
118.109
116.688
115.275
113.873
112.483
111.107
109.746
108.401
107.075
105.767
104.479
103.212
101.966
100.744
99.5496
98.4499
)
;

boundaryField
{
    inlet
    {
        type            calculated;
        value           uniform 0;
    }
    outlet
    {
        type            calculated;
        value           uniform 0;
    }
    axis
    {
        type            empty;
    }
    negZside
    {
        type            wedge;
    }
    posZside
    {
        type            wedge;
    }
    tubeWall
    {
        type            calculated;
        value           uniform 0;
    }
}


// ************************************************************************* //
